 vasp.6.3.2 27Jun22 (build Oct 02 2025 09:19:44) complex                        
  
 executed on             LinuxIFC date 2026.04.12  13:40:35
 running   80 mpi-ranks, with    8 threads/rank
 distrk:  each k-point on   16 cores,    5 groups
 distr:  one band on NCORE=   1 cores,   16 groups


--------------------------------------------------------------------------------------------------------


 INCAR:
   ISPIN = 1
   ENCUT = 500
   ISMEAR = 1
   SIGMA = 0.2
   NCORE = 8
   NPAR = 16
   KPAR = 5
   ISTART = 0
   LCHARG = T
   LWAVE = F
   LREAL = Auto
   ALGO = Fast
   LORBIT = 11
   IVDW = 12
   LVDW_EWALD = .TRUE.
   GGA = RP
   LVHAR = .TRUE.
   PREC = Normal
   LAECHG = .TRUE.
   NSW = 0
   EDIFF = 1E-6
   EDIFFG = -0.02
   IBRION = -1
   ISIF = 2
   NELM = 120
   ISYM = 0
   LSOL = .TRUE.
   ISOL = 2
   C_MOLAR = 1.0
   R_ION = 4.0
   TAU = 9e-3
   LDIPOL = .TRUE.
   IDIPOL = 3
   DIPOL = 0.5 0.5 0.5
   LVAC = .TRUE.
   SOL_Z0 = 7.0
   SOL_Z1 = 30.0
   NELECT = 661.0

 POTCAR:    PAW_PBE Ni 02Aug2007                  
 POTCAR:    PAW_PBE O 08Apr2002                   
 POTCAR:    PAW_PBE N 08Apr2002                   
 POTCAR:    PAW_PBE C 08Apr2002                   
 POTCAR:    PAW_PBE H 15Jun2001                   
 POTCAR:    PAW_PBE Ni 02Aug2007                  
   SHA256 =  0534bc51ca8003dfef23f56753fef9fdd3e22eac8d719fccacb59f3e6b7a69c7 Ni/POTCAR             
   COPYR  = (c) Copyright 02Aug2007 Georg Kresse                                                    
   COPYR  = This file is part of the software VASP. Any use, copying, and all other rights are regul
   COPYR  = If you do not have a valid VASP license, you may not use, copy or distribute this file. 
   VRHFIN =Ni:                                                                                      
   LEXCH  = PE                                                                                      
   EATOM  =  1077.6739 eV,   79.2068 Ry                                                             
                                                                                                    
   TITEL  = PAW_PBE Ni 02Aug2007                                                                    
   LULTRA =        F    use ultrasoft PP ?                                                          
   IUNSCR =        1    unscreen: 0-lin 1-nonlin 2-no                                               
   RPACOR =    2.000    partial core radius                                                         
   POMASS =   58.690; ZVAL   =   10.000    mass and valenz                                          
   RCORE  =    2.300    outmost cutoff radius                                                       
   RWIGS  =    2.430; RWIGS  =    1.286    wigner-seitz radius (au A)                               
   ENMAX  =  269.532; ENMIN  =  202.149 eV                                                          
   RCLOC  =    1.201    cutoff for local pot                                                        
   LCOR   =        T    correct aug charges                                                         
   LPAW   =        T    paw PP                                                                      
   EAUG   =  544.565                                                                                
   DEXC   =    0.000                                                                                
   RMAX   =    2.357    core radius for proj-oper                                                   
   RAUG   =    1.300    factor for augmentation sphere                                              
   RDEP   =    2.390    radius for radial grids                                                     
   RDEPT  =    1.838    core radius for aug-charge                                                  
                                                                                                    
   Atomic configuration                                                                             
    9 entries                                                                                       
     n  l   j            E        occ.                                                              
     1  0  0.50     -8206.4253   2.0000                                                             
     2  0  0.50      -976.1748   2.0000                                                             
     2  1  1.50      -839.0571   6.0000                                                             
     3  0  0.50      -105.9991   2.0000                                                             
     3  1  1.50       -66.4603   6.0000                                                             
     3  2  2.50        -4.6458   9.0000                                                             
     4  0  0.50        -4.4926   1.0000                                                             
     4  1  1.50        -4.0817   0.0000                                                             
     4  3  2.50        -1.3606   0.0000                                                             
   Description                                                                                      
     l       E           TYP  RCUT    TYP  RCUT                                                     
     2     -4.6457903     23  2.300                                                                 
     2     -6.0063729     23  2.300                                                                 
     0     -4.4925590     23  2.300                                                                 
     0      5.0102601     23  2.300                                                                 
     1     -2.7211652     23  2.300                                                                 
     1     16.5183231     23  2.300                                                                 
  local pseudopotential read in
  partial core-charges read in
  partial kinetic energy density read in
  atomic valenz-charges read in
  non local Contribution for L=           2  read in
    real space projection operators read in
  non local Contribution for L=           2  read in
    real space projection operators read in
  non local Contribution for L=           0  read in
    real space projection operators read in
  non local Contribution for L=           0  read in
    real space projection operators read in
  non local Contribution for L=           1  read in
    real space projection operators read in
  non local Contribution for L=           1  read in
    real space projection operators read in
    PAW grid and wavefunctions read in
 
   number of l-projection  operators is LMAX  =           6
   number of lm-projection operators is LMMAX =          18
 
 POTCAR:    PAW_PBE O 08Apr2002                   
   SHA256 =  818f92134a0a090dccd8ba1447fa70422a3b330e708bb4f08108d8ae51209ddf O/POTCAR              
   COPYR  = (c) Copyright 08Apr2002 Georg Kresse                                                    
   COPYR  = This file is part of the software VASP. Any use, copying, and all other rights are regul
   COPYR  = If you do not have a valid VASP license, you may not use, copy or distribute this file. 
   VRHFIN =O: s2p4                                                                                  
   LEXCH  = PE                                                                                      
   EATOM  =   432.3788 eV,   31.7789 Ry                                                             
                                                                                                    
   TITEL  = PAW_PBE O 08Apr2002                                                                     
   LULTRA =        F    use ultrasoft PP ?                                                          
   IUNSCR =        1    unscreen: 0-lin 1-nonlin 2-no                                               
   RPACOR =    1.200    partial core radius                                                         
   POMASS =   16.000; ZVAL   =    6.000    mass and valenz                                          
   RCORE  =    1.520    outmost cutoff radius                                                       
   RWIGS  =    1.550; RWIGS  =    0.820    wigner-seitz radius (au A)                               
   ENMAX  =  400.000; ENMIN  =  300.000 eV                                                          
   ICORE  =        2    local potential                                                             
   LCOR   =        T    correct aug charges                                                         
   LPAW   =        T    paw PP                                                                      
   EAUG   =  605.392                                                                                
   DEXC   =    0.000                                                                                
   RMAX   =    1.553    core radius for proj-oper                                                   
   RAUG   =    1.300    factor for augmentation sphere                                              
   RDEP   =    1.550    radius for radial grids                                                     
   RDEPT  =    1.329    core radius for aug-charge                                                  
                                                                                                    
   Atomic configuration                                                                             
    4 entries                                                                                       
     n  l   j            E        occ.                                                              
     1  0  0.50      -514.6923   2.0000                                                             
     2  0  0.50       -23.9615   2.0000                                                             
     2  1  0.50        -9.0305   4.0000                                                             
     3  2  1.50        -9.5241   0.0000                                                             
   Description                                                                                      
     l       E           TYP  RCUT    TYP  RCUT                                                     
     0    -23.9615318     23  1.200                                                                 
     0     -9.5240782     23  1.200                                                                 
     1     -9.0304911     23  1.520                                                                 
     1      8.1634956     23  1.520                                                                 
     2     -9.5240782      7  1.500                                                                 
  local pseudopotential read in
  partial core-charges read in
  partial kinetic energy density read in
  kinetic energy density of atom read in
  atomic valenz-charges read in
  non local Contribution for L=           0  read in
    real space projection operators read in
  non local Contribution for L=           0  read in
    real space projection operators read in
  non local Contribution for L=           1  read in
    real space projection operators read in
  non local Contribution for L=           1  read in
    real space projection operators read in
    PAW grid and wavefunctions read in
 
   number of l-projection  operators is LMAX  =           4
   number of lm-projection operators is LMMAX =           8
 
 POTCAR:    PAW_PBE N 08Apr2002                   
   SHA256 =  e053789ff3a61a86a1b75d8a110fcc91f86041011e7b0817c7c99e4e8a6349d7 N/POTCAR              
   COPYR  = (c) Copyright 08Apr2002 Georg Kresse                                                    
   COPYR  = This file is part of the software VASP. Any use, copying, and all other rights are regul
   COPYR  = If you do not have a valid VASP license, you may not use, copy or distribute this file. 
   VRHFIN =N: s2p3                                                                                  
   LEXCH  = PE                                                                                      
   EATOM  =   264.5486 eV,   19.4438 Ry                                                             
                                                                                                    
   TITEL  = PAW_PBE N 08Apr2002                                                                     
   LULTRA =        F    use ultrasoft PP ?                                                          
   IUNSCR =        1    unscreen: 0-lin 1-nonlin 2-no                                               
   RPACOR =    1.200    partial core radius                                                         
   POMASS =   14.001; ZVAL   =    5.000    mass and valenz                                          
   RCORE  =    1.500    outmost cutoff radius                                                       
   RWIGS  =    1.400; RWIGS  =    0.741    wigner-seitz radius (au A)                               
   ENMAX  =  400.000; ENMIN  =  300.000 eV                                                          
   ICORE  =        2    local potential                                                             
   LCOR   =        T    correct aug charges                                                         
   LPAW   =        T    paw PP                                                                      
   EAUG   =  627.112                                                                                
   DEXC   =    0.000                                                                                
   RMAX   =    1.529    core radius for proj-oper                                                   
   RAUG   =    1.300    factor for augmentation sphere                                              
   RDEP   =    1.514    radius for radial grids                                                     
   RDEPT  =    1.338    core radius for aug-charge                                                  
                                                                                                    
   Atomic configuration                                                                             
    4 entries                                                                                       
     n  l   j            E        occ.                                                              
     1  0  0.50      -384.7179   2.0000                                                             
     2  0  0.50       -18.5828   2.0000                                                             
     2  1  0.50        -7.0898   3.0000                                                             
     3  2  1.50        -6.8029   0.0000                                                             
   Description                                                                                      
     l       E           TYP  RCUT    TYP  RCUT                                                     
     0    -18.5828119     23  1.200                                                                 
     0    -13.5018863     23  1.200                                                                 
     1     -7.0897853     23  1.500                                                                 
     1      9.5240782     23  1.500                                                                 
     2     -6.8029130      7  1.500                                                                 
  local pseudopotential read in
  partial core-charges read in
  partial kinetic energy density read in
  atomic valenz-charges read in
  non local Contribution for L=           0  read in
    real space projection operators read in
  non local Contribution for L=           0  read in
    real space projection operators read in
  non local Contribution for L=           1  read in
    real space projection operators read in
  non local Contribution for L=           1  read in
    real space projection operators read in
    PAW grid and wavefunctions read in
 
   number of l-projection  operators is LMAX  =           4
   number of lm-projection operators is LMMAX =           8
 
 POTCAR:    PAW_PBE C 08Apr2002                   
   SHA256 =  253f7b50bb8d59471dbedb8285d89021f4a42ed1a2c5d38a03a736e69125dd95 C/POTCAR              
   COPYR  = (c) Copyright 08Apr2002 Georg Kresse                                                    
   COPYR  = This file is part of the software VASP. Any use, copying, and all other rights are regul
   COPYR  = If you do not have a valid VASP license, you may not use, copy or distribute this file. 
   VRHFIN =C: s2p2                                                                                  
   LEXCH  = PE                                                                                      
   EATOM  =   147.1560 eV,   10.8157 Ry                                                             
                                                                                                    
   TITEL  = PAW_PBE C 08Apr2002                                                                     
   LULTRA =        F    use ultrasoft PP ?                                                          
   IUNSCR =        1    unscreen: 0-lin 1-nonlin 2-no                                               
   RPACOR =    1.200    partial core radius                                                         
   POMASS =   12.011; ZVAL   =    4.000    mass and valenz                                          
   RCORE  =    1.500    outmost cutoff radius                                                       
   RWIGS  =    1.630; RWIGS  =    0.863    wigner-seitz radius (au A)                               
   ENMAX  =  400.000; ENMIN  =  300.000 eV                                                          
   ICORE  =        2    local potential                                                             
   LCOR   =        T    correct aug charges                                                         
   LPAW   =        T    paw PP                                                                      
   EAUG   =  644.873                                                                                
   DEXC   =    0.000                                                                                
   RMAX   =    1.529    core radius for proj-oper                                                   
   RAUG   =    1.300    factor for augmentation sphere                                              
   RDEP   =    1.501    radius for radial grids                                                     
   RDEPT  =    1.300    core radius for aug-charge                                                  
                                                                                                    
   Atomic configuration                                                                             
    4 entries                                                                                       
     n  l   j            E        occ.                                                              
     1  0  0.50      -273.3789   2.0000                                                             
     2  0  0.50       -13.7508   2.0000                                                             
     2  1  0.50        -5.2854   2.0000                                                             
     3  2  1.50        -5.4423   0.0000                                                             
   Description                                                                                      
     l       E           TYP  RCUT    TYP  RCUT                                                     
     0    -13.7508458     23  1.200                                                                 
     0     -8.2022199     23  1.200                                                                 
     1     -5.2854383     23  1.500                                                                 
     1     34.0145650     23  1.500                                                                 
     2     -5.4423304      7  1.500                                                                 
  local pseudopotential read in
  partial core-charges read in
  partial kinetic energy density read in
  atomic valenz-charges read in
  non local Contribution for L=           0  read in
    real space projection operators read in
  non local Contribution for L=           0  read in
    real space projection operators read in
  non local Contribution for L=           1  read in
    real space projection operators read in
  non local Contribution for L=           1  read in
    real space projection operators read in
    PAW grid and wavefunctions read in
 
   number of l-projection  operators is LMAX  =           4
   number of lm-projection operators is LMMAX =           8
 
 POTCAR:    PAW_PBE H 15Jun2001                   
   SHA256 =  030f79b5d3ab3cf0e668861823c8fb652ff669f3e15e46930bd03bfd63a607b6 H/POTCAR              
   COPYR  = (c) Copyright 15Jun2001 Georg Kresse                                                    
   COPYR  = This file is part of the software VASP. Any use, copying, and all other rights are regul
   COPYR  = If you do not have a valid VASP license, you may not use, copy or distribute this file. 
   VRHFIN =H: ultrasoft test                                                                        
   LEXCH  = PE                                                                                      
   EATOM  =    12.4884 eV,    0.9179 Ry                                                             
                                                                                                    
   TITEL  = PAW_PBE H 15Jun2001                                                                     
   LULTRA =        F    use ultrasoft PP ?                                                          
   IUNSCR =        0    unscreen: 0-lin 1-nonlin 2-no                                               
   RPACOR =    0.000    partial core radius                                                         
   POMASS =    1.000; ZVAL   =    1.000    mass and valenz                                          
   RCORE  =    1.100    outmost cutoff radius                                                       
   RWIGS  =    0.700; RWIGS  =    0.370    wigner-seitz radius (au A)                               
   ENMAX  =  250.000; ENMIN  =  200.000 eV                                                          
   RCLOC  =    0.701    cutoff for local pot                                                        
   LCOR   =        T    correct aug charges                                                         
   LPAW   =        T    paw PP                                                                      
   EAUG   =  400.000                                                                                
   RMAX   =    1.123    core radius for proj-oper                                                   
   RAUG   =    1.200    factor for augmentation sphere                                              
   RDEP   =    1.112    radius for radial grids                                                     
   RDEPT  =    0.926    core radius for aug-charge                                                  
                                                                                                    
   Atomic configuration                                                                             
    2 entries                                                                                       
     n  l   j            E        occ.                                                              
     1  0  0.50        -6.4927   1.0000                                                             
     2  1  0.50        -3.4015   0.0000                                                             
   Description                                                                                      
     l       E           TYP  RCUT    TYP  RCUT                                                     
     0     -6.4927494     23  1.100                                                                 
     0      6.8029130     23  1.100                                                                 
     1     -4.0817478     23  1.100                                                                 
  local pseudopotential read in
  atomic valenz-charges read in
  non local Contribution for L=           0  read in
    real space projection operators read in
  non local Contribution for L=           0  read in
    real space projection operators read in
  non local Contribution for L=           1  read in
    real space projection operators read in
    PAW grid and wavefunctions read in
 
   number of l-projection  operators is LMAX  =           3
   number of lm-projection operators is LMMAX =           5
 
 Optimization of the real space projectors (new method)

 maximal supplied QI-value         = 16.25
 optimisation between [QCUT,QGAM] = [ 11.38, 22.75] = [ 36.24,144.96] Ry 
 Optimized for a Real-space Cutoff    1.39 Angstroem

   l    n(q)    QCUT    max X(q) W(low)/X(q) W(high)/X(q)  e(spline) 
   2      8    11.376    60.317    0.19E-03    0.33E-04    0.13E-06
   2      8    11.376    55.921    0.20E-03    0.34E-04    0.14E-06
   0      9    11.376    51.690    0.82E-04    0.12E-03    0.20E-06
   0      9    11.376    30.015    0.74E-04    0.11E-03    0.18E-06
   1      9    11.376    18.849    0.39E-03    0.12E-03    0.13E-06
   1      9    11.376    14.624    0.33E-03    0.10E-03    0.11E-06
 Optimization of the real space projectors (new method)

 maximal supplied QI-value         = 24.76
 optimisation between [QCUT,QGAM] = [ 11.39, 22.77] = [ 36.31,145.25] Ry 
 Optimized for a Real-space Cutoff    1.00 Angstroem

   l    n(q)    QCUT    max X(q) W(low)/X(q) W(high)/X(q)  e(spline) 
   0      7    11.387    20.381    0.39E-03    0.13E-02    0.15E-06
   0      7    11.387    15.268    0.42E-03    0.14E-02    0.17E-06
   1      6    11.387     5.964    0.41E-03    0.11E-02    0.17E-06
   1      6    11.387     5.382    0.39E-03    0.87E-03    0.15E-06
 Optimization of the real space projectors (new method)

 maximal supplied QI-value         = 25.13
 optimisation between [QCUT,QGAM] = [ 11.31, 22.87] = [ 35.82,146.48] Ry 
 Optimized for a Real-space Cutoff    1.27 Angstroem

   l    n(q)    QCUT    max X(q) W(low)/X(q) W(high)/X(q)  e(spline) 
   0      9    11.310    79.467    0.75E-04    0.16E-03    0.36E-06
   0      9    11.310    66.151    0.74E-04    0.16E-03    0.36E-06
   1      8    11.310    17.416    0.35E-03    0.12E-03    0.95E-06
   1      8    11.310    12.382    0.37E-03    0.13E-03    0.98E-06
 Optimization of the real space projectors (new method)

 maximal supplied QI-value         = 25.13
 optimisation between [QCUT,QGAM] = [ 11.31, 22.87] = [ 35.82,146.48] Ry 
 Optimized for a Real-space Cutoff    1.00 Angstroem

   l    n(q)    QCUT    max X(q) W(low)/X(q) W(high)/X(q)  e(spline) 
   0      7    11.310   115.676    0.43E-03    0.13E-02    0.19E-06
   0      7    11.310    87.132    0.43E-03    0.13E-02    0.18E-06
   1      6    11.310     4.429    0.42E-03    0.74E-03    0.11E-06
   1      6    11.310     2.733    0.34E-03    0.55E-03    0.92E-07
 Optimization of the real space projectors (new method)

 maximal supplied QI-value         = 34.20
 optimisation between [QCUT,QGAM] = [ 11.29, 22.57] = [ 35.68,142.71] Ry 
 Optimized for a Real-space Cutoff    1.16 Angstroem

   l    n(q)    QCUT    max X(q) W(low)/X(q) W(high)/X(q)  e(spline) 
   0      8    11.287    19.460    0.40E-03    0.73E-03    0.16E-06
   0      8    11.287    12.209    0.38E-03    0.70E-03    0.15E-06
   1      7    11.287     4.655    0.22E-03    0.25E-04    0.22E-06
 -----------------------------------------------------------------------------
|                                                                             |
|               ----> ADVICE to this user running VASP <----                  |
|                                                                             |
|     You enforced a specific xc type in the INCAR file but a different       |
|     type was found in the POTCAR file.                                      |
|     I HOPE YOU KNOW WHAT YOU ARE DOING!                                     |
|                                                                             |
 -----------------------------------------------------------------------------

  PAW_PBE Ni 02Aug2007                  :
 energy of atom  1       EATOM=-1077.6739
 kinetic energy error for atom=    0.0030 (will be added to EATOM!!)
  PAW_PBE O 08Apr2002                   :
 energy of atom  2       EATOM= -432.3788
 kinetic energy error for atom=    0.0224 (will be added to EATOM!!)
  PAW_PBE N 08Apr2002                   :
 energy of atom  3       EATOM= -264.5486
 kinetic energy error for atom=    0.0138 (will be added to EATOM!!)
  PAW_PBE C 08Apr2002                   :
 energy of atom  4       EATOM= -147.1560
 kinetic energy error for atom=    0.0076 (will be added to EATOM!!)
  PAW_PBE H 15Jun2001                   :
 energy of atom  5       EATOM=  -12.4884
 kinetic energy error for atom=    0.0020 (will be added to EATOM!!)
 
 
 POSCAR: NiN
  positions in cartesian coordinates
  No initial velocities read in
 -----------------------------------------------------------------------------
|                                                                             |
|           W    W    AA    RRRRR   N    N  II  N    N   GGGG   !!!           |
|           W    W   A  A   R    R  NN   N  II  NN   N  G    G  !!!           |
|           W    W  A    A  R    R  N N  N  II  N N  N  G       !!!           |
|           W WW W  AAAAAA  RRRRR   N  N N  II  N  N N  G  GGG   !            |
|           WW  WW  A    A  R   R   N   NN  II  N   NN  G    G                |
|           W    W  A    A  R    R  N    N  II  N    N   GGGG   !!!           |
|                                                                             |
|     LDIPOL = .TRUE. must be selected only for cubic supercells, since       |
|     the quadrupole corrections are currently only implemented for this      |
|     specific geometry.                                                      |
|     Please change your box, or set LDIPOL=.FALSE.                           |
|                                                                             |
 -----------------------------------------------------------------------------

 exchange correlation table for  LEXCH =        9
   RHO(1)=    0.500       N(1)  =     2000
   RHO(2)=  100.500       N(2)  =     4000
 
 POSCAR: NiN
  positions in cartesian coordinates
  No initial velocities read in
 
 POSCAR: NiN
  positions in cartesian coordinates
  No initial velocities read in
 


--------------------------------------------------------------------------------------------------------


 ion  position               nearest neighbor table
   1  0.284  0.457  0.207-  51 1.86  50 1.90  52 1.91  49 1.93  48 1.95
   2  0.353  0.485  0.277- 121 1.00  52 1.45
   3  0.582  0.089  0.286- 119 0.95 120 1.04
   4  0.528  0.521  0.365- 125 1.00 151 1.01
   5  0.509  0.612  0.290- 126 0.97 127 1.05
   6  0.819  0.940  0.402- 188 0.96 145 0.96
   7  0.432  0.404  0.357- 134 0.99 129 1.02
   8  0.587  0.179  0.350- 131 1.00 130 1.02
   9  0.574  0.068  0.415- 136 0.97 196 1.00
  10  0.193  0.754  0.321- 135 0.92 207 1.02
  11  0.866  0.121  0.374- 158 0.98 137 1.02
  12  0.280  0.196  0.378- 138 0.98 139 1.00
  13  0.303  0.460  0.430- 140 0.97 141 0.99
  14  0.890  0.019  0.282- 142 0.95 143 0.97
  15  0.946  0.556  0.449- 144 0.95 168 1.01
  16  0.602  0.243  0.466- 147 0.96 146 1.00
  17  0.440  0.842  0.435- 132 0.96 149 0.97
  18  0.010  0.289  0.276- 124 0.94 150 0.98
  19  0.189  0.110  0.289- 162 0.99 153 1.00
  20  0.476  0.907  0.319- 173 0.98 155 1.01
  21  0.182  0.705  0.401- 160 0.97 156 0.98
  22  0.732  0.220  0.307- 159 1.00 204 1.03
  23  0.103  0.555  0.399- 166 0.97 161 1.00
  24  0.177  0.004  0.355- 172 0.93 205 0.97
  25  0.973  0.544  0.300- 165 1.00 164 1.00
  26  0.611  0.054  0.491- 206 0.97 133 0.99
  27  0.796  0.762  0.416- 167 0.99 128 1.01
  28  0.786  0.240  0.441- 169 1.00 170 1.05
  29  0.281  0.047  0.431- 148 1.01 171 1.02
  30  0.366  0.113  0.306- 174 0.94 152 1.01
  31  0.834  0.338  0.315- 175 0.96 176 0.97
  32  0.676  0.873  0.303- 178 0.99 177 1.09
  33  0.388  0.696  0.404- 179 0.95 180 1.00
  34  0.372  0.241  0.443- 182 0.94 181 0.97
  35  0.714  0.538  0.273- 183 0.99 184 1.01
  36  0.991  0.241  0.451- 186 0.96 185 1.02
  37  0.021  0.871  0.444- 157 0.98 187 1.02
  38  0.793  0.676  0.270- 189 0.99 190 1.01
  39  0.947  0.859  0.334- 191 0.94 163 0.98
  40  0.938  0.407  0.398- 194 0.96 193 1.01
  41  0.583  0.858  0.384- 195 0.96 154 0.98
  42  0.088  0.030  0.433- 198 0.99 197 1.01
  43  0.748  0.416  0.383- 200 0.95 199 1.03
  44  0.352  0.810  0.330- 201 0.96 202 0.98
  45  0.084  0.422  0.356- 203 0.97 192 0.99
  46  0.946  0.686  0.355- 122 0.96 123 0.97
  47  0.213  0.465  0.284-  52 1.22
  48  0.321  0.565  0.199-  89 1.38  80 1.40   1 1.95
  49  0.139  0.563  0.209-  71 1.44  72 1.45   1 1.93
  50  0.248  0.351  0.202-  79 1.40  70 1.41   1 1.90
  51  0.420  0.352  0.197-  87 1.36  88 1.44   1 1.86
  52  0.269  0.475  0.261-  47 1.22   2 1.45   1 1.91
  53  0.925  0.010  0.192-  54 1.40 108 1.43  64 1.47
  54  0.977  0.068  0.189-  53 1.40  55 1.45  65 1.48
  55  0.926  0.181  0.189-  56 1.39 110 1.44  54 1.45
  56  0.981  0.234  0.190-  55 1.39  67 1.42  57 1.42
  57  0.919  0.345  0.191- 112 1.40  58 1.42  56 1.42
  58  0.974  0.401  0.193-  57 1.42  69 1.44  59 1.45
  59  0.919  0.513  0.195- 114 1.41  60 1.41  58 1.45
  60  0.971  0.568  0.204-  71 1.38  61 1.41  59 1.41
  61  0.922  0.678  0.201- 116 1.41  60 1.41  62 1.45
  62  0.979  0.734  0.204-  63 1.43  72 1.43  61 1.45
  63  0.925  0.845  0.200-  62 1.43 118 1.44  64 1.45
  64  0.985  0.897  0.197-  74 1.41  63 1.45  53 1.47
  65  0.092  0.010  0.191-  66 1.41  75 1.44  54 1.48
  66  0.145  0.067  0.188-  65 1.41  67 1.43  76 1.43
  67  0.091  0.178  0.192-  68 1.37  56 1.42  66 1.43
  68  0.145  0.231  0.196-  67 1.37  78 1.42  69 1.43
  69  0.085  0.343  0.197-  70 1.43  68 1.43  58 1.44
  70  0.138  0.400  0.203-  50 1.41  69 1.43  71 1.44
  71  0.079  0.511  0.208-  60 1.38  70 1.44  49 1.44
  72  0.089  0.676  0.210-  62 1.43  73 1.44  49 1.45
  73  0.149  0.728  0.204-  74 1.43  80 1.44  72 1.44
  74  0.095  0.838  0.200-  64 1.41  73 1.43  75 1.46
  75  0.148  0.898  0.195-  82 1.41  65 1.44  74 1.46
  76  0.257  0.015  0.187-  77 1.43  66 1.43  83 1.48
  77  0.313  0.069  0.193-  76 1.43  84 1.43  78 1.45
  78  0.255  0.181  0.197-  68 1.42  77 1.45  79 1.46
  79  0.308  0.242  0.199-  50 1.40  86 1.45  78 1.46
  80  0.260  0.674  0.200-  48 1.40  81 1.43  73 1.44
  81  0.314  0.730  0.197-  91 1.41  80 1.43  82 1.45
  82  0.258  0.843  0.193-  75 1.41  83 1.45  81 1.45
  83  0.314  0.899  0.189-  93 1.41  82 1.45  76 1.48
  84  0.424  0.017  0.190-  85 1.42  94 1.43  77 1.43
  85  0.475  0.076  0.195-  86 1.42  84 1.42  95 1.46
  86  0.421  0.186  0.197-  85 1.42  87 1.43  79 1.45
  87  0.472  0.246  0.196-  51 1.36  86 1.43  97 1.44
  88  0.481  0.402  0.193-  99 1.40  51 1.44  89 1.44
  89  0.428  0.514  0.195-  48 1.38  90 1.44  88 1.44
  90  0.480  0.574  0.194-  91 1.37  89 1.44 101 1.46
  91  0.425  0.680  0.195-  90 1.37  81 1.41  92 1.45
  92  0.483  0.734  0.192- 103 1.41  93 1.44  91 1.45
  93  0.424  0.846  0.190-  83 1.41  92 1.44  94 1.49
  94  0.480  0.906  0.190-  84 1.43 105 1.46  93 1.49
  95  0.589  0.017  0.196-  96 1.42 106 1.44  85 1.46
  96  0.643  0.074  0.195-  95 1.42  97 1.46 107 1.46
  97  0.584  0.187  0.194-  98 1.43  87 1.44  96 1.46
  98  0.646  0.237  0.195-  99 1.43  97 1.43 109 1.44
  99  0.591  0.349  0.196-  88 1.40 100 1.42  98 1.43
 100  0.644  0.405  0.191- 101 1.41  99 1.42 111 1.45
 101  0.594  0.515  0.193- 100 1.41 102 1.41  90 1.46
 102  0.648  0.570  0.190- 113 1.36 101 1.41 103 1.44
 103  0.593  0.682  0.188-  92 1.41 104 1.43 102 1.44
 104  0.647  0.739  0.188- 105 1.40 115 1.41 103 1.43
 105  0.594  0.848  0.191- 104 1.40 106 1.41  94 1.46
 106  0.647  0.905  0.193- 105 1.41 117 1.42  95 1.44
 107  0.757  0.014  0.193- 118 1.41 108 1.42  96 1.46
 108  0.814  0.068  0.192- 109 1.42 107 1.42  53 1.43
 109  0.759  0.179  0.194- 108 1.42 110 1.44  98 1.44
 110  0.814  0.235  0.193- 111 1.43  55 1.44 109 1.44
 111  0.756  0.347  0.193- 112 1.41 110 1.43 100 1.45
 112  0.810  0.402  0.188-  57 1.40 111 1.41 113 1.46
 113  0.754  0.516  0.188- 102 1.36 114 1.39 112 1.46
 114  0.810  0.568  0.188- 113 1.39  59 1.41 115 1.45
 115  0.757  0.682  0.188- 104 1.41 116 1.44 114 1.45
 116  0.814  0.736  0.194-  61 1.41 117 1.44 115 1.44
 117  0.757  0.847  0.196- 106 1.42 116 1.44 118 1.44
 118  0.813  0.905  0.197- 107 1.41  63 1.44 117 1.44
 119  0.612  0.094  0.263-   3 0.95
 120  0.622  0.010  0.292-   3 1.04
 121  0.383  0.497  0.253-   2 1.00
 122  0.001  0.654  0.373-  46 0.96
 123  0.954  0.640  0.333-  46 0.97
 124  0.985  0.276  0.253-  18 0.94
 125  0.518  0.562  0.341-   4 1.00
 126  0.479  0.687  0.287-   5 0.97
 127  0.584  0.589  0.280-   5 1.05
 128  0.789  0.833  0.412-  27 1.01
 129  0.383  0.416  0.379-   7 1.02
 130  0.533  0.256  0.348-   8 1.02
 131  0.580  0.147  0.326-   8 1.00
 132  0.433  0.785  0.426-  17 0.96
 133  0.590  0.068  0.464-  26 0.99
 134  0.384  0.425  0.335-   7 0.99
 135  0.244  0.691  0.311-  10 0.92
 136  0.575  0.099  0.391-   9 0.97
 137  0.855  0.143  0.347-  11 1.02
 138  0.289  0.143  0.397-  12 0.98
 139  0.335  0.166  0.358-  12 1.00
 140  0.318  0.400  0.445-  13 0.97
 141  0.228  0.496  0.424-  13 0.99
 142  0.932  0.989  0.260-  14 0.95
 143  0.896  0.958  0.295-  14 0.97
 144  0.912  0.621  0.436-  15 0.95
 145  0.856  0.941  0.380-   6 0.96
 146  0.616  0.182  0.482-  16 1.00
 147  0.537  0.262  0.454-  16 0.96
 148  0.337  0.973  0.437-  29 1.01
 149  0.486  0.849  0.417-  17 0.97
 150  0.951  0.307  0.293-  18 0.98
 151  0.496  0.476  0.359-   4 1.01
 152  0.299  0.120  0.296-  30 1.01
 153  0.121  0.177  0.285-  19 1.00
 154  0.552  0.876  0.358-  41 0.98
 155  0.424  0.882  0.322-  20 1.01
 156  0.127  0.761  0.416-  21 0.98
 157  0.945  0.903  0.445-  37 0.98
 158  0.939  0.065  0.373-  11 0.98
 159  0.684  0.204  0.322-  22 1.00
 160  0.188  0.639  0.407-  21 0.97
 161  0.117  0.493  0.383-  23 1.00
 162  0.171  0.079  0.310-  19 0.99
 163  0.938  0.798  0.335-  39 0.98
 164  0.901  0.586  0.289-  25 1.00
 165  0.025  0.544  0.282-  25 1.00
 166  0.068  0.553  0.422-  23 0.97
 167  0.840  0.723  0.394-  27 0.99
 168  0.929  0.511  0.433-  15 1.01
 169  0.798  0.203  0.416-  28 1.00
 170  0.716  0.247  0.451-  28 1.05
 171  0.217  0.050  0.442-  29 1.02
 172  0.210  0.035  0.368-  24 0.93
 173  0.436  0.982  0.315-  20 0.98
 174  0.401  0.134  0.289-  30 0.94
 175  0.802  0.366  0.339-  31 0.96
 176  0.804  0.294  0.309-  31 0.97
 177  0.724  0.801  0.287-  32 1.09
 178  0.604  0.886  0.299-  32 0.99
 179  0.433  0.635  0.390-  33 0.95
 180  0.315  0.710  0.405-  33 1.00
 181  0.329  0.223  0.428-  34 0.97
 182  0.437  0.188  0.435-  34 0.94
 183  0.738  0.504  0.248-  35 0.99
 184  0.754  0.474  0.289-  35 1.01
 185  0.919  0.251  0.457-  36 1.02
 186  0.976  0.292  0.432-  36 0.96
 187  0.038  0.929  0.440-  37 1.02
 188  0.764  0.010  0.407-   6 0.96
 189  0.806  0.664  0.242-  38 0.99
 190  0.763  0.631  0.277-  38 1.01
 191  0.020  0.830  0.334-  39 0.94
 192  0.046  0.446  0.331-  45 0.99
 193  0.865  0.435  0.388-  40 1.01
 194  0.986  0.406  0.379-  40 0.96
 195  0.657  0.815  0.383-  41 0.96
 196  0.565  0.009  0.406-   9 1.00
 197  0.046  0.109  0.434-  42 1.01
 198  0.119  0.011  0.407-  42 0.99
 199  0.669  0.449  0.382-  43 1.03
 200  0.772  0.356  0.399-  43 0.95
 201  0.299  0.804  0.316-  44 0.96
 202  0.363  0.780  0.355-  44 0.98
 203  0.144  0.352  0.356-  45 0.97
 204  0.777  0.161  0.287-  22 1.03
 205  0.235  0.934  0.351-  24 0.97
 206  0.541  0.085  0.502-  26 0.97
 207  0.183  0.740  0.349-  10 1.02
 

IMPORTANT INFORMATION: All symmetrisations will be switched off!
NOSYMM: (Re-)initialisation of all symmetry stuff for point group C_1.


----------------------------------------------------------------------------------------

                                     Primitive cell                                     

  volume of cell :    6641.0917

  direct lattice vectors                    reciprocal lattice vectors
    14.802000000  0.000000000  0.000000000     0.067558438 -0.039004882  0.000000000
     7.401000000 12.818908000  0.000000000     0.000000000  0.078009765  0.000000000
     0.000000000  0.000000000 35.000000000     0.000000000  0.000000000  0.028571429

  length of vectors
    14.802000000 14.801999977 35.000000000     0.078009765  0.078009765  0.028571429

  position of ions in fractional coordinates (direct lattice)
     0.283953324  0.456633280  0.206525143
     0.353300561  0.485267544  0.276693143
     0.581538766  0.089076230  0.286438571
     0.527727619  0.521353301  0.364996571
     0.508963320  0.611731514  0.289655143
     0.818578399  0.940342188  0.402095143
     0.432169376  0.403716916  0.356870857
     0.586613981  0.178650163  0.350316571
     0.574122621  0.067502630  0.415205429
     0.193347428  0.753657800  0.320939143
     0.866448596  0.121469785  0.374475429
     0.279813003  0.195505733  0.378019714
     0.302989954  0.460036846  0.429665429
     0.889695097  0.018560083  0.281651429
     0.946369428  0.556277493  0.449196571
     0.602433163  0.242958293  0.466081714
     0.439750170  0.841744086  0.434981143
     0.010495519  0.289285952  0.275746286
     0.188991677  0.110443885  0.288663714
     0.476237404  0.906956349  0.319308571
     0.182340827  0.704930560  0.401314571
     0.731657958  0.220266032  0.306537714
     0.102560073  0.555491934  0.398967143
     0.176790731  0.004168842  0.355379143
     0.973342661  0.543547079  0.299817429
     0.610624938  0.053668378  0.491020857
     0.795875923  0.761830103  0.416216000
     0.785637003  0.239697484  0.441463714
     0.281343766  0.047400293  0.430536857
     0.366473204  0.112756874  0.306110857
     0.834302851  0.338173111  0.314860286
     0.675754524  0.872522839  0.302993429
     0.388071344  0.696496145  0.404466857
     0.371981464  0.241043153  0.443346571
     0.713683567  0.538291561  0.272841714
     0.990757080  0.241369234  0.451280000
     0.020614512  0.870936900  0.443852000
     0.793376472  0.676273673  0.270018286
     0.946972551  0.858757236  0.333695429
     0.938094369  0.407401317  0.397609429
     0.582797323  0.858158901  0.383577143
     0.088136136  0.030284951  0.433050857
     0.748448441  0.415932465  0.383363714
     0.351965394  0.809905181  0.329503143
     0.083740435  0.421870568  0.355562857
     0.946130245  0.685722216  0.354873143
     0.213094251  0.465312646  0.284033143
     0.320701957  0.564970901  0.198774000
     0.138698783  0.563252346  0.208573429
     0.247698503  0.350862960  0.201539429
     0.419910639  0.351600152  0.196884857
     0.269014827  0.474544322  0.260656571
     0.925359594  0.010390121  0.191578571
     0.977044346  0.067631346  0.189028857
     0.925761203  0.180569203  0.188894571
     0.980570455  0.234438066  0.189927429
     0.919035519  0.345078536  0.191060286
     0.974099588  0.400655032  0.192509714
     0.918935339  0.513323756  0.194713429
     0.971323697  0.568074129  0.204429429
     0.921678338  0.677610761  0.201439143
     0.978565122  0.733641274  0.204438571
     0.925008120  0.844534495  0.200032000
     0.985130368  0.897159883  0.197436571
     0.092083179  0.010074961  0.191373429
     0.144939549  0.066965923  0.188149714
     0.091241210  0.178168842  0.191806286
     0.144781834  0.230941668  0.195895143
     0.085365130  0.342526056  0.197133714
     0.138021261  0.400278245  0.202685143
     0.078705678  0.511114519  0.208201714
     0.089176312  0.676133256  0.209969714
     0.148546967  0.727790542  0.204324857
     0.095080366  0.838257050  0.199756286
     0.147608775  0.898425201  0.194571429
     0.256633531  0.014835897  0.187207429
     0.312897416  0.068854539  0.192517714
     0.255126707  0.180969393  0.196992000
     0.307768099  0.242178975  0.199070571
     0.259750496  0.674056636  0.199500857
     0.314463196  0.730229127  0.196592857
     0.257717279  0.842884589  0.192705143
     0.313776672  0.899214660  0.189084000
     0.424085455  0.017237818  0.189889714
     0.475305479  0.075894920  0.194642571
     0.420833196  0.186140660  0.197297429
     0.472484774  0.245747922  0.196036571
     0.481469986  0.401621573  0.193165714
     0.427899222  0.514106974  0.194737143
     0.480033564  0.573975568  0.194203143
     0.424537518  0.680412871  0.194957143
     0.483332165  0.734088270  0.191514286
     0.423682466  0.846296736  0.189594857
     0.480112835  0.905923500  0.189505143
     0.589111124  0.017106761  0.195708000
     0.643142234  0.073641218  0.195428857
     0.584497431  0.187277263  0.193995714
     0.646179405  0.237137204  0.194678857
     0.590649537  0.348814423  0.195668000
     0.643812784  0.405410508  0.191157143
     0.593721877  0.514805941  0.192908286
     0.647926771  0.570067279  0.189663714
     0.592740188  0.682141568  0.188356857
     0.646818934  0.739286061  0.187510000
     0.593724182  0.848230598  0.190610286
     0.646858914  0.904853986  0.193295714
     0.757089418  0.013789006  0.193276857
     0.813555950  0.068377899  0.191644857
     0.758613761  0.178866250  0.193580571
     0.814472298  0.235406167  0.193312000
     0.756379234  0.346882121  0.193195714
     0.810484965  0.402095873  0.188322286
     0.753893673  0.516028354  0.188293429
     0.810416580  0.568187243  0.187594286
     0.756698910  0.681635284  0.187720857
     0.813709127  0.735671868  0.194000571
     0.757480382  0.847449720  0.196250857
     0.812941181  0.904556769  0.197380857
     0.612003002  0.093628100  0.263147143
     0.622494948  0.009933763  0.292366000
     0.382791671  0.496837952  0.252552000
     0.000761884  0.653724171  0.373498857
     0.954455610  0.640396982  0.333440286
     0.985304173  0.275728635  0.252984857
     0.517857040  0.561683569  0.340967714
     0.479397283  0.686661454  0.287019143
     0.584445978  0.588752958  0.280247714
     0.788616857  0.832667650  0.411646286
     0.383419956  0.416161033  0.379492286
     0.533414296  0.255945358  0.347546286
     0.580274125  0.146596730  0.326163429
     0.432765394  0.784609734  0.425662000
     0.590264514  0.068206278  0.463865429
     0.383646904  0.424789693  0.334736571
     0.244218484  0.691095529  0.310811143
     0.574731501  0.099046658  0.390834000
     0.854750108  0.142937292  0.346505714
     0.288516738  0.143321880  0.397264571
     0.334639092  0.165657636  0.357557714
     0.317996158  0.399583958  0.445020571
     0.227538690  0.495506325  0.424408286
     0.931951495  0.989065527  0.259598571
     0.895840205  0.957966934  0.294577143
     0.911920700  0.621468693  0.436471714
     0.856256448  0.941239301  0.379907429
     0.615820219  0.182027986  0.482311143
     0.537493649  0.261933388  0.453797714
     0.336526065  0.972825454  0.436583714
     0.485571193  0.848821132  0.417047714
     0.951004162  0.307460667  0.292524571
     0.496408709  0.476088135  0.358694000
     0.299261515  0.119592090  0.296413143
     0.121324498  0.177021319  0.285334571
     0.552347822  0.875725920  0.357866571
     0.424237089  0.882341928  0.321917429
     0.126940564  0.761412751  0.416450571
     0.944701105  0.903290670  0.444663714
     0.938836117  0.064916606  0.373184286
     0.684374854  0.203670235  0.321530000
     0.187863059  0.638685448  0.407402571
     0.116612985  0.492901579  0.383487143
     0.170733268  0.078595618  0.309840857
     0.938131480  0.797610842  0.335100857
     0.900905637  0.586134950  0.289424857
     0.024595204  0.544222644  0.281532571
     0.068009267  0.552588411  0.422107429
     0.839690666  0.722627856  0.394253714
     0.929003313  0.510513844  0.433043714
     0.798275055  0.202756740  0.416364571
     0.715556524  0.246808855  0.451435429
     0.216753903  0.049986317  0.442365429
     0.209690997  0.034979579  0.368307143
     0.436321323  0.981922953  0.314674857
     0.400890958  0.133888940  0.288711429
     0.802335793  0.365959409  0.339234571
     0.804473654  0.294460339  0.308548571
     0.724293562  0.801265599  0.287058571
     0.603801876  0.885662024  0.298792857
     0.432852264  0.635276421  0.390462286
     0.314636918  0.710092467  0.405105143
     0.328599003  0.222619587  0.428449143
     0.437462632  0.187886519  0.434570000
     0.737986552  0.504210655  0.247654571
     0.754481800  0.473594163  0.288978000
     0.918711418  0.251323280  0.457321143
     0.975890051  0.291978849  0.431739429
     0.037667352  0.928951202  0.439806000
     0.763602561  0.010095244  0.407110571
     0.806019739  0.663797572  0.242134857
     0.762679513  0.630946879  0.276827429
     0.019931221  0.829888942  0.334410000
     0.045838948  0.446476408  0.331059714
     0.864714982  0.435031596  0.388165429
     0.985778714  0.405678081  0.378554571
     0.657389773  0.814870502  0.383141429
     0.564741083  0.008670785  0.405679429
     0.046218947  0.109396994  0.433626857
     0.118799275  0.011107030  0.407149143
     0.668736451  0.449427518  0.381941429
     0.771768577  0.356157482  0.399177714
     0.299438246  0.803709645  0.315687143
     0.362697187  0.780181900  0.355335429
     0.143527910  0.351713266  0.355988000
     0.776709525  0.161299231  0.287454000
     0.234611181  0.933754264  0.351299143
     0.541337568  0.084591449  0.501882857
     0.182823783  0.739932762  0.348638286

  ion indices of the primitive-cell ions
   primitive index   ion index
                 1           1
                 2           2
                 3           3
                 4           4
                 5           5
                 6           6
                 7           7
                 8           8
                 9           9
                10          10
                11          11
                12          12
                13          13
                14          14
                15          15
                16          16
                17          17
                18          18
                19          19
                20          20
                21          21
                22          22
                23          23
                24          24
                25          25
                26          26
                27          27
                28          28
                29          29
                30          30
                31          31
                32          32
                33          33
                34          34
                35          35
                36          36
                37          37
                38          38
                39          39
                40          40
                41          41
                42          42
                43          43
                44          44
                45          45
                46          46
                47          47
                48          48
                49          49
                50          50
                51          51
                52          52
                53          53
                54          54
                55          55
                56          56
                57          57
                58          58
                59          59
                60          60
                61          61
                62          62
                63          63
                64          64
                65          65
                66          66
                67          67
                68          68
                69          69
                70          70
                71          71
                72          72
                73          73
                74          74
                75          75
                76          76
                77          77
                78          78
                79          79
                80          80
                81          81
                82          82
                83          83
                84          84
                85          85
                86          86
                87          87
                88          88
                89          89
                90          90
                91          91
                92          92
                93          93
                94          94
                95          95
                96          96
                97          97
                98          98
                99          99
               100         100
               101         101
               102         102
               103         103
               104         104
               105         105
               106         106
               107         107
               108         108
               109         109
               110         110
               111         111
               112         112
               113         113
               114         114
               115         115
               116         116
               117         117
               118         118
               119         119
               120         120
               121         121
               122         122
               123         123
               124         124
               125         125
               126         126
               127         127
               128         128
               129         129
               130         130
               131         131
               132         132
               133         133
               134         134
               135         135
               136         136
               137         137
               138         138
               139         139
               140         140
               141         141
               142         142
               143         143
               144         144
               145         145
               146         146
               147         147
               148         148
               149         149
               150         150
               151         151
               152         152
               153         153
               154         154
               155         155
               156         156
               157         157
               158         158
               159         159
               160         160
               161         161
               162         162
               163         163
               164         164
               165         165
               166         166
               167         167
               168         168
               169         169
               170         170
               171         171
               172         172
               173         173
               174         174
               175         175
               176         176
               177         177
               178         178
               179         179
               180         180
               181         181
               182         182
               183         183
               184         184
               185         185
               186         186
               187         187
               188         188
               189         189
               190         190
               191         191
               192         192
               193         193
               194         194
               195         195
               196         196
               197         197
               198         198
               199         199
               200         200
               201         201
               202         202
               203         203
               204         204
               205         205
               206         206
               207         207

----------------------------------------------------------------------------------------

 
 
 KPOINTS: K-Points                                

Automatic generation of k-mesh.
 Grid dimensions read from file:
 generate k-points for:    3    3    1

 Generating k-lattice:

  Cartesian coordinates                     Fractional coordinates (reciprocal lattice)
     0.022519479 -0.013001627  0.000000000     0.333333333  0.000000000  0.000000000
     0.000000000  0.026003255  0.000000000     0.000000000  0.333333333  0.000000000
     0.000000000  0.000000000  0.028571429     0.000000000  0.000000000  1.000000000

  Length of vectors
     0.026003255  0.026003255  0.028571429

  Shift w.r.t. Gamma in fractional coordinates (k-lattice)
     0.000000000  0.000000000  0.000000000

 
 Subroutine IBZKPT returns following result:
 ===========================================
 
 Found      5 irreducible k-points:
 
 Following reciprocal coordinates:
            Coordinates               Weight
  0.000000  0.000000  0.000000      1.000000
  0.333333 -0.000000  0.000000      2.000000
  0.333333  0.333333  0.000000      2.000000
  0.000000  0.333333  0.000000      2.000000
 -0.333333  0.333333  0.000000      2.000000
 
 Following cartesian coordinates:
            Coordinates               Weight
  0.000000  0.000000  0.000000      1.000000
  0.022519 -0.013002  0.000000      2.000000
  0.022519  0.013002  0.000000      2.000000
  0.000000  0.026003  0.000000      2.000000
 -0.022519  0.039005  0.000000      2.000000
 


--------------------------------------------------------------------------------------------------------




 Dimension of arrays:
   k-points           NKPTS =      5   k-points in BZ     NKDIM =      5   number of bands    NBANDS=    448
   number of dos      NEDOS =    301   number of ions     NIONS =    207
   non local maximal  LDIM  =      6   non local SUM 2l+1 LMDIM =     18
   total plane-waves  NPLWV = ******
   max r-space proj   IRMAX =   2343   max aug-charges    IRDMAX=   6811
   dimension x,y,z NGX =    84 NGY =   84 NGZ =  192
   dimension x,y,z NGXF=   168 NGYF=  168 NGZF=  384
   support grid    NGXF=   168 NGYF=  168 NGZF=  384
   ions per type =               1  46   1  70  89
   NGX,Y,Z   is equivalent  to a cutoff of   9.43,  9.43,  9.12 a.u.
   NGXF,Y,Z  is equivalent  to a cutoff of  18.87, 18.87, 18.24 a.u.

 SYSTEM =  unknown system                          
 POSCAR =  NiN                                     

 Startparameter for this run:
   NWRITE =      2    write-flag & timer
   PREC   = normal    normal or accurate (medium, high low for compatibility)
   ISTART =      0    job   : 0-new  1-cont  2-samecut
   ICHARG =      2    charge: 1-file 2-atom 10-const
   ISPIN  =      1    spin polarized calculation?
   LNONCOLLINEAR =      F non collinear calculations
   LSORBIT =      F    spin-orbit coupling
   INIWAV =      1    electr: 0-lowe 1-rand  2-diag
   LASPH  =      F    aspherical Exc in radial PAW
 Electronic Relaxation 1
   ENCUT  =  500.0 eV  36.75 Ry    6.06 a.u.  26.99 26.99 63.81*2*pi/ulx,y,z
   ENINI  =  500.0     initial cutoff
   ENAUG  =  644.9 eV  augmentation charge cutoff
   NELM   =    120;   NELMIN=  2; NELMDL= -5     # of ELM steps 
   EDIFF  = 0.1E-05   stopping-criterion for ELM
   LREAL  =      T    real-space projection
   NLSPLINE    = F    spline interpolate recip. space projectors
   LCOMPAT=      F    compatible to vasp.4.4
   GGA_COMPAT  = T    GGA compatible to vasp.4.4-vasp.4.6
   LMAXPAW     = -100 max onsite density
   LMAXMIX     =    2 max onsite mixed and CHGCAR
   VOSKOWN=      0    Vosko Wilk Nusair interpolation
   ROPT   =   -0.00050  -0.00050  -0.00050  -0.00050
   ROPT   =   -0.00050
 Ionic relaxation
   EDIFFG = -.2E-01   stopping-criterion for IOM
   NSW    =      0    number of steps for IOM
   NBLOCK =      1;   KBLOCK =      1    inner block; outer block 
   IBRION =     -1    ionic relax: 0-MD 1-quasi-New 2-CG
   NFREE  =      0    steps in history (QN), initial steepest desc. (CG)
   ISIF   =      2    stress and relaxation
   IWAVPR =     10    prediction:  0-non 1-charg 2-wave 3-comb
   ISYM   =      0    0-nonsym 1-usesym 2-fastsym
   LCORR  =      T    Harris-Foulkes like correction to forces

   POTIM  = 0.5000    time-step for ionic-motion
   TEIN   =    0.0    initial temperature
   TEBEG  =    0.0;   TEEND  =   0.0 temperature during run
   SMASS  =  -3.00    Nose mass-parameter (am)
   estimated Nose-frequenzy (Omega)   =  0.10E-29 period in steps = 0.13E+47 mass=  -0.501E-26a.u.
   SCALEE = 1.0000    scale energy and forces
   NPACO  =    256;   APACO  = 10.0  distance and # of slots for P.C.
   PSTRESS=    0.0 pullay stress

  Mass of Ions in am
   POMASS =  58.69 16.00 14.00 12.01  1.00
  Ionic Valenz
   ZVAL   =  10.00  6.00  5.00  4.00  1.00
  Atomic Wigner-Seitz radii
   RWIGS  =  -1.00 -1.00 -1.00 -1.00 -1.00
  virtual crystal weights 
   VCA    =   1.00  1.00  1.00  1.00  1.00
   NELECT =     661.0000    total number of electrons
   NUPDOWN=      -1.0000    fix difference up-down

 DOS related values:
   EMIN   =  10.00;   EMAX   =-10.00  energy-range for DOS
   EFERMI =   0.00
   ISMEAR =     1;   SIGMA  =   0.20  broadening in eV -4-tet -1-fermi 0-gaus

 Electronic relaxation 2 (details)
   IALGO  =     68    algorithm
   LDIAG  =      T    sub-space diagonalisation (order eigenvalues)
   LSUBROT=      F    optimize rotation matrix (better conditioning)
   TURBO    =      0    0=normal 1=particle mesh
   IRESTART =      0    0=no restart 2=restart with 2 vectors
   NREBOOT  =      0    no. of reboots
   NMIN     =      0    reboot dimension
   EREF     =   0.00    reference energy to select bands
   IMIX   =      4    mixing-type and parameters
     AMIX     =   0.40;   BMIX     =  1.00
     AMIX_MAG =   1.60;   BMIX_MAG =  1.00
     AMIN     =   0.10
     WC   =   100.;   INIMIX=   1;  MIXPRE=   1;  MAXMIX= -45

 Intra band minimization:
   WEIMIN = 0.0000     energy-eigenvalue tresh-hold
   EBREAK =  0.56E-09  absolut break condition
   DEPER  =   0.30     relativ break condition  

   TIME   =   0.40     timestep for ELM

  volume/ion in A,a.u.               =      32.08       216.50
  Fermi-wavevector in a.u.,A,eV,Ry     =   0.758686  1.433709  7.831577  0.575605
  Thomas-Fermi vector in A             =   1.857312
 
 Write flags
   LWAVE        =      F    write WAVECAR
   LDOWNSAMPLE  =      F    k-point downsampling of WAVECAR
   LCHARG       =      T    write CHGCAR
   LVTOT        =      F    write LOCPOT, total local potential
   LVHAR        =      T    write LOCPOT, Hartree potential only
   LELF         =      F    write electronic localiz. function (ELF)
   LORBIT       =     11    0 simple, 1 ext, 2 COOP (PROOUT), +10 PAW based schemes


 Dipole corrections
   LMONO  =      F    monopole corrections only (constant potential shift)
   LDIPOL =      T    correct potential (dipole corrections)
   IDIPOL =      3    1-x, 2-y, 3-z, 4-all directions 
   EPSILON=  1.0000000 bulk dielectric constant

 Exchange correlation treatment:
   GGA     =    RP    GGA type
   LEXCH   =     9    internal setting for exchange type
   LIBXC   =     F    Libxc                    
   VOSKOWN =     0    Vosko Wilk Nusair interpolation
   LHFCALC =     F    Hartree Fock is set to
   LHFONE  =     F    Hartree Fock one center treatment
   AEXX    =    0.0000 exact exchange contribution

 Linear response parameters
   LEPSILON=     F    determine dielectric tensor
   LRPA    =     F    only Hartree local field effects (RPA)
   LNABLA  =     F    use nabla operator in PAW spheres
   LVEL    =     F    velocity operator in full k-point grid
   CSHIFT  =0.1000    complex shift for real part using Kramers Kronig
   OMEGAMAX=  -1.0    maximum frequency
   DEG_THRESHOLD= 0.2000000E-02 threshold for treating states as degnerate
   RTIME   =   -0.100 relaxation time in fs
  (WPLASMAI=    0.000 imaginary part of plasma frequency in eV, 0.658/RTIME)
   DFIELD  = 0.0000000 0.0000000 0.0000000 field for delta impulse in time
 
  Optional k-point grid parameters
   LKPOINTS_OPT  =     F    use optional k-point grid
   KPOINTS_OPT_MODE=     1    mode for optional k-point grid
 
 Orbital magnetization related:
   ORBITALMAG=     F  switch on orbital magnetization
   LCHIMAG   =     F  perturbation theory with respect to B field
   DQ        =  0.001000  dq finite difference perturbation B field
   LLRAUG    =     F  two centre corrections for induced B field

 Solvation model:
   LSOL             =     T         switch on solvation model
   LSOL_SCF         =     T         include solvation in SCF
   ISOL             =     2         solvation model type
   EFERMI_ref       =  0.000000         reference Fermi level
   capacitance_init =  1.000000         initial capacitance
 Nonlinear solvation model:
   LNLDIEL     =     T         switch on non-linear dielectric mode
   LNLION      =     T         switch on non-linear ionic mode
   LNLTEST     =     F         test non-linear model in linear regime
   I_NLOC_SOL  =     1         type of nonlocal dielectric response
   NC_K        =  0.015000     cutoff charge density for cavities (1/Angstrom**3)
   TAU         =  0.009000     cavity formation energy (eV/Angstrom**2)
   SIGMA_K     =  0.600000     cavity width
   A_K         =  0.125000     smoothing length (Angstrom)
   R_SOLV      =  1.400000     solvent radius (Angstrom)
   R_CAV       =  0.000000     cavity radius (Angstrom)
   R_DIEL      =  1.000000     dielectric radius (Angstrom)
   R_ION       =  4.000000     ionic radius (Angstrom)
   R_B         =  0.000000     bound charge radius (Angstrom)
   SOLTEMP     =298.000000     solvent temperature (K)
   EB_K        = 78.400000     relative permittivity of the bulk solvent
   EPSILON_INF =  1.780000     optical relative permittivity of bulk solvent
   N_MOL       =  0.033500     molar density of solvent (1/Angstrom**3)
   P_MOL       =  0.500000     solvent dipole moment (e*Angstrom)
   C_MOLAR     =  1.000000     electrolyte concentration (mol/L)
   LAMBDA_D_K  =  0.000000     Debye length (Angstrom)
   ZION        =  1.000000     charge of ions in electrolyte (e)
   D_ION       = -1.000000     minimum ion packing diameter (Angstrom)



--------------------------------------------------------------------------------------------------------


 Static calculation
 charge density and potential will be updated during run
 non-spin polarized calculation
 RMM-DIIS sequential band-by-band and
  variant of blocked Davidson during initial phase
 perform sub-space diagonalisation
    before iterative eigenvector-optimisation
 modified Broyden-mixing scheme, WC =      100.0
 initial mixing is a Kerker type mixing with AMIX =  0.4000 and BMIX =      1.0000
 Hartree-type preconditioning will be used
 using additional bands          117
 real space projection scheme for non local part
 use partial core corrections
 calculate Harris-corrections to forces 
   (improved forces if not selfconsistent)
 use gradient corrections 
 use of overlap-Matrix (Vanderbilt PP)
 Methfessel and Paxton  Order N= 1 SIGMA  =   0.20


--------------------------------------------------------------------------------------------------------


  energy-cutoff  :      500.00
  volume of cell :     6641.09
      direct lattice vectors                 reciprocal lattice vectors
    14.802000000  0.000000000  0.000000000     0.067558438 -0.039004882  0.000000000
     7.401000000 12.818908000  0.000000000     0.000000000  0.078009765  0.000000000
     0.000000000  0.000000000 35.000000000     0.000000000  0.000000000  0.028571429

  length of vectors
    14.802000000 14.801999977 35.000000000     0.078009765  0.078009765  0.028571429


 
 k-points in units of 2pi/SCALE and weight: K-Points                                
   0.00000000  0.00000000  0.00000000       0.111
   0.02251948 -0.01300163  0.00000000       0.222
   0.02251948  0.01300163  0.00000000       0.222
   0.00000000  0.02600325  0.00000000       0.222
  -0.02251948  0.03900488  0.00000000       0.222
 
 k-points in reciprocal lattice and weights: K-Points                                
   0.00000000  0.00000000  0.00000000       0.111
   0.33333333 -0.00000000  0.00000000       0.222
   0.33333333  0.33333333  0.00000000       0.222
   0.00000000  0.33333333  0.00000000       0.222
  -0.33333333  0.33333333  0.00000000       0.222
 
 position of ions in fractional coordinates (direct lattice) 
   0.28395332  0.45663328  0.20652514
   0.35330056  0.48526754  0.27669314
   0.58153877  0.08907623  0.28643857
   0.52772762  0.52135330  0.36499657
   0.50896332  0.61173151  0.28965514
   0.81857840  0.94034219  0.40209514
   0.43216938  0.40371692  0.35687086
   0.58661398  0.17865016  0.35031657
   0.57412262  0.06750263  0.41520543
   0.19334743  0.75365780  0.32093914
   0.86644860  0.12146979  0.37447543
   0.27981300  0.19550573  0.37801971
   0.30298995  0.46003685  0.42966543
   0.88969510  0.01856008  0.28165143
   0.94636943  0.55627749  0.44919657
   0.60243316  0.24295829  0.46608171
   0.43975017  0.84174409  0.43498114
   0.01049552  0.28928595  0.27574629
   0.18899168  0.11044388  0.28866371
   0.47623740  0.90695635  0.31930857
   0.18234083  0.70493056  0.40131457
   0.73165796  0.22026603  0.30653771
   0.10256007  0.55549193  0.39896714
   0.17679073  0.00416884  0.35537914
   0.97334266  0.54354708  0.29981743
   0.61062494  0.05366838  0.49102086
   0.79587592  0.76183010  0.41621600
   0.78563700  0.23969748  0.44146371
   0.28134377  0.04740029  0.43053686
   0.36647320  0.11275687  0.30611086
   0.83430285  0.33817311  0.31486029
   0.67575452  0.87252284  0.30299343
   0.38807134  0.69649614  0.40446686
   0.37198146  0.24104315  0.44334657
   0.71368357  0.53829156  0.27284171
   0.99075708  0.24136923  0.45128000
   0.02061451  0.87093690  0.44385200
   0.79337647  0.67627367  0.27001829
   0.94697255  0.85875724  0.33369543
   0.93809437  0.40740132  0.39760943
   0.58279732  0.85815890  0.38357714
   0.08813614  0.03028495  0.43305086
   0.74844844  0.41593246  0.38336371
   0.35196539  0.80990518  0.32950314
   0.08374044  0.42187057  0.35556286
   0.94613024  0.68572222  0.35487314
   0.21309425  0.46531265  0.28403314
   0.32070196  0.56497090  0.19877400
   0.13869878  0.56325235  0.20857343
   0.24769850  0.35086296  0.20153943
   0.41991064  0.35160015  0.19688486
   0.26901483  0.47454432  0.26065657
   0.92535959  0.01039012  0.19157857
   0.97704435  0.06763135  0.18902886
   0.92576120  0.18056920  0.18889457
   0.98057045  0.23443807  0.18992743
   0.91903552  0.34507854  0.19106029
   0.97409959  0.40065503  0.19250971
   0.91893534  0.51332376  0.19471343
   0.97132370  0.56807413  0.20442943
   0.92167834  0.67761076  0.20143914
   0.97856512  0.73364127  0.20443857
   0.92500812  0.84453450  0.20003200
   0.98513037  0.89715988  0.19743657
   0.09208318  0.01007496  0.19137343
   0.14493955  0.06696592  0.18814971
   0.09124121  0.17816884  0.19180629
   0.14478183  0.23094167  0.19589514
   0.08536513  0.34252606  0.19713371
   0.13802126  0.40027825  0.20268514
   0.07870568  0.51111452  0.20820171
   0.08917631  0.67613326  0.20996971
   0.14854697  0.72779054  0.20432486
   0.09508037  0.83825705  0.19975629
   0.14760877  0.89842520  0.19457143
   0.25663353  0.01483590  0.18720743
   0.31289742  0.06885454  0.19251771
   0.25512671  0.18096939  0.19699200
   0.30776810  0.24217897  0.19907057
   0.25975050  0.67405664  0.19950086
   0.31446320  0.73022913  0.19659286
   0.25771728  0.84288459  0.19270514
   0.31377667  0.89921466  0.18908400
   0.42408546  0.01723782  0.18988971
   0.47530548  0.07589492  0.19464257
   0.42083320  0.18614066  0.19729743
   0.47248477  0.24574792  0.19603657
   0.48146999  0.40162157  0.19316571
   0.42789922  0.51410697  0.19473714
   0.48003356  0.57397557  0.19420314
   0.42453752  0.68041287  0.19495714
   0.48333217  0.73408827  0.19151429
   0.42368247  0.84629674  0.18959486
   0.48011283  0.90592350  0.18950514
   0.58911112  0.01710676  0.19570800
   0.64314223  0.07364122  0.19542886
   0.58449743  0.18727726  0.19399571
   0.64617941  0.23713720  0.19467886
   0.59064954  0.34881442  0.19566800
   0.64381278  0.40541051  0.19115714
   0.59372188  0.51480594  0.19290829
   0.64792677  0.57006728  0.18966371
   0.59274019  0.68214157  0.18835686
   0.64681893  0.73928606  0.18751000
   0.59372418  0.84823060  0.19061029
   0.64685891  0.90485399  0.19329571
   0.75708942  0.01378901  0.19327686
   0.81355595  0.06837790  0.19164486
   0.75861376  0.17886625  0.19358057
   0.81447230  0.23540617  0.19331200
   0.75637923  0.34688212  0.19319571
   0.81048496  0.40209587  0.18832229
   0.75389367  0.51602835  0.18829343
   0.81041658  0.56818724  0.18759429
   0.75669891  0.68163528  0.18772086
   0.81370913  0.73567187  0.19400057
   0.75748038  0.84744972  0.19625086
   0.81294118  0.90455677  0.19738086
   0.61200300  0.09362810  0.26314714
   0.62249495  0.00993376  0.29236600
   0.38279167  0.49683795  0.25255200
   0.00076188  0.65372417  0.37349886
   0.95445561  0.64039698  0.33344029
   0.98530417  0.27572863  0.25298486
   0.51785704  0.56168357  0.34096771
   0.47939728  0.68666145  0.28701914
   0.58444598  0.58875296  0.28024771
   0.78861686  0.83266765  0.41164629
   0.38341996  0.41616103  0.37949229
   0.53341430  0.25594536  0.34754629
   0.58027413  0.14659673  0.32616343
   0.43276539  0.78460973  0.42566200
   0.59026451  0.06820628  0.46386543
   0.38364690  0.42478969  0.33473657
   0.24421848  0.69109553  0.31081114
   0.57473150  0.09904666  0.39083400
   0.85475011  0.14293729  0.34650571
   0.28851674  0.14332188  0.39726457
   0.33463909  0.16565764  0.35755771
   0.31799616  0.39958396  0.44502057
   0.22753869  0.49550633  0.42440829
   0.93195150  0.98906553  0.25959857
   0.89584021  0.95796693  0.29457714
   0.91192070  0.62146869  0.43647171
   0.85625645  0.94123930  0.37990743
   0.61582022  0.18202799  0.48231114
   0.53749365  0.26193339  0.45379771
   0.33652606  0.97282545  0.43658371
   0.48557119  0.84882113  0.41704771
   0.95100416  0.30746067  0.29252457
   0.49640871  0.47608813  0.35869400
   0.29926151  0.11959209  0.29641314
   0.12132450  0.17702132  0.28533457
   0.55234782  0.87572592  0.35786657
   0.42423709  0.88234193  0.32191743
   0.12694056  0.76141275  0.41645057
   0.94470110  0.90329067  0.44466371
   0.93883612  0.06491661  0.37318429
   0.68437485  0.20367023  0.32153000
   0.18786306  0.63868545  0.40740257
   0.11661299  0.49290158  0.38348714
   0.17073327  0.07859562  0.30984086
   0.93813148  0.79761084  0.33510086
   0.90090564  0.58613495  0.28942486
   0.02459520  0.54422264  0.28153257
   0.06800927  0.55258841  0.42210743
   0.83969067  0.72262786  0.39425371
   0.92900331  0.51051384  0.43304371
   0.79827506  0.20275674  0.41636457
   0.71555652  0.24680885  0.45143543
   0.21675390  0.04998632  0.44236543
   0.20969100  0.03497958  0.36830714
   0.43632132  0.98192295  0.31467486
   0.40089096  0.13388894  0.28871143
   0.80233579  0.36595941  0.33923457
   0.80447365  0.29446034  0.30854857
   0.72429356  0.80126560  0.28705857
   0.60380188  0.88566202  0.29879286
   0.43285226  0.63527642  0.39046229
   0.31463692  0.71009247  0.40510514
   0.32859900  0.22261959  0.42844914
   0.43746263  0.18788652  0.43457000
   0.73798655  0.50421066  0.24765457
   0.75448180  0.47359416  0.28897800
   0.91871142  0.25132328  0.45732114
   0.97589005  0.29197885  0.43173943
   0.03766735  0.92895120  0.43980600
   0.76360256  0.01009524  0.40711057
   0.80601974  0.66379757  0.24213486
   0.76267951  0.63094688  0.27682743
   0.01993122  0.82988894  0.33441000
   0.04583895  0.44647641  0.33105971
   0.86471498  0.43503160  0.38816543
   0.98577871  0.40567808  0.37855457
   0.65738977  0.81487050  0.38314143
   0.56474108  0.00867079  0.40567943
   0.04621895  0.10939699  0.43362686
   0.11879927  0.01110703  0.40714914
   0.66873645  0.44942752  0.38194143
   0.77176858  0.35615748  0.39917771
   0.29943825  0.80370965  0.31568714
   0.36269719  0.78018190  0.35533543
   0.14352791  0.35171327  0.35598800
   0.77670953  0.16129923  0.28745400
   0.23461118  0.93375426  0.35129914
   0.54133757  0.08459145  0.50188286
   0.18282378  0.73993276  0.34863829
 
 position of ions in cartesian coordinates  (Angst):
   7.58262000  5.85354000  7.22838000
   8.82102000  6.22060000  9.68426000
   9.26719000  1.14186000 10.02535000
  11.66996000  6.68318000 12.77488000
  12.06110000  7.84173000 10.13793000
  19.07607000 12.05416000 14.07333000
   9.38488000  5.17521000 12.49048000
  10.00525000  2.29010000 12.26108000
   8.99775000  0.86531000 14.53219000
   8.43975000  9.66107000 11.23287000
  13.72417000  1.55711000 13.10664000
   5.58873000  2.50617000 13.23069000
   7.88959000  5.89717000 15.03829000
  13.30663000  0.23792000  9.85780000
  18.12517000  7.13087000 15.72188000
  10.71535000  3.11446000 16.31286000
  12.73893000 10.79024000 15.22434000
   2.29636000  3.70833000  9.65112000
   3.61485000  1.41577000 10.10323000
  13.76165000 11.62619000 11.17580000
   7.91620000  9.03644000 14.04601000
  12.46019000  2.82357000 10.72882000
   5.62929000  7.12080000 13.96385000
   2.64771000  0.05344000 12.43827000
  18.43021000  6.96768000 10.49361000
   9.43567000  0.68797000 17.18573000
  17.41886000  9.76583000 14.56756000
  13.40300000  3.07266000 15.45123000
   4.51526000  0.60762000 15.06879000
   6.25905000  1.44542000 10.71388000
  14.85217000  4.33501000 11.02011000
  16.46006000 11.18479000 10.60477000
  10.89900000  8.92832000 14.15634000
   7.29003000  3.08991000 15.51713000
  14.54784000  6.90031000  9.54946000
  16.45156000  3.09409000 15.79480000
   6.75094000 11.16446000 15.53482000
  16.74866000  8.66909000  9.45064000
  20.37275000 11.00833000 11.67934000
  16.90085000  5.22244000 13.91633000
  14.97780000 11.00066000 13.42520000
   1.52873000  0.38822000 15.15678000
  14.15685000  5.33180000 13.41773000
  11.20390000 10.38210000 11.53261000
   4.36179000  5.40792000 12.44470000
  19.07965000  8.79021000 12.42056000
   6.59800000  5.96480000  9.94116000
   8.92838000  7.24231000  6.95709000
   6.22165000  7.22028000  7.30007000
   6.26317000  4.49768000  7.05388000
   8.81771000  4.50713000  6.89097000
   7.49406000  6.08314000  9.12298000
  13.77407000  0.13319000  6.70525000
  14.96275000  0.86696000  6.61601000
  15.03951000  2.31470000  6.61131000
  16.24948000  3.00524000  6.64746000
  16.15749000  4.42353000  6.68711000
  17.38387000  5.13596000  6.73784000
  17.40119000  6.58025000  6.81497000
  18.58185000  7.28209000  7.15503000
  18.65768000  8.68623000  7.05037000
  19.91440000  9.40448000  7.15535000
  19.94237000 10.82601000  7.00112000
  21.22178000 11.50061000  6.91028000
   1.43758000  0.12915000  6.69807000
   2.64101000  0.85843000  6.58524000
   2.66918000  2.28393000  6.71322000
   3.85226000  2.96042000  6.85633000
   3.79861000  4.39081000  6.89968000
   5.00545000  5.13113000  7.09398000
   4.94776000  6.55193000  7.28706000
[...]
     12.55279      2.29287      6.77532         0.172947      0.737148     -0.168384
     13.79806      3.01765      6.76592        -0.620015     -0.106115     -0.529663
     13.76320      4.44665      6.76185        -0.637288      0.313726     -1.110816
     14.97271      5.15443      6.59128        -0.740238      0.681277      1.116552
     14.97826      6.61492      6.59027         1.548884     -2.770108     -0.791994
     16.20094      7.28354      6.56580         1.252505      1.587672      0.518399
     16.24544      8.73782      6.57023         0.645355     -0.527314      0.252580
     17.48923      9.43051      6.79002        -0.950132      0.335576     -0.151837
     17.48420     10.86338      6.86878         0.657875      0.530274     -0.525415
     18.72778     11.59543      6.90833        -0.520630     -1.590749     -0.216854
      9.75181      1.20021      9.21015         0.657438      0.257689     -1.115955
      9.28769      0.12734     10.23281         0.038634      1.165710     -0.331205
      9.34318      6.36892      8.83932         0.060776     -0.180877      1.107659
      4.84949      8.38003     13.07246         0.814811     -1.102533      0.269334
     18.86743      8.20919     11.67041         0.112375     -0.944416     -0.120393
     16.62514      3.53454      8.85447        -0.487448     -0.378619     -1.733836
     11.82234      7.20017     11.93387         0.142968     -0.363525      0.021878
     12.17802      8.80225     10.04567        -0.424383      0.286029      0.277098
     13.00833      7.54717      9.80867        -1.682236     -0.040992      0.651973
     17.83568     10.67389     14.40762        -0.137265     -0.875467      0.216176
      8.75539      5.33473     13.28223         0.970074     -0.201133     -0.739432
      9.78985      3.28094     12.16412         0.084729     -1.279295      0.456839
      9.67418      1.87921     11.41572         0.034251     -0.026259     -0.190171
     12.21269     10.05784     14.89817        -0.867427     -0.782033     -0.405313
      9.24189      0.87433     16.23529         0.429211     -0.569800     -0.306107
      8.82261      5.44534     11.71578         0.595711     -0.144114      0.271942
      8.72972      8.85909     10.87839         0.615576     -2.743490     -1.030721
      9.24022      1.26967     13.67919         0.633968      0.861302     -0.474833
     13.70989      1.83230     12.12770        -0.529169     -0.062195      1.398208
      5.33135      1.83723     13.90426        -0.086198     -0.424366     -0.506061
      6.17936      2.12355     12.51452        -0.872708      0.019791      0.677673
      7.66430      5.12223     15.57572        -0.152962     -0.506635     -0.041641
      7.03527      6.35185     14.85429        -0.026478     -0.229777     -0.178713
     21.11482     12.67874      9.08595         0.538372     -0.225207     -1.080595
     20.35014     12.28009     10.31020        -0.245381     -0.562070      0.828843
     18.09774      7.96655     15.27651        -0.306407      1.656350     -0.432272
     19.64042     12.06566     13.29676         0.470952     -0.051474     -0.873815
     10.46256      2.33340     16.88089         0.137288      0.323673     -0.358413
      9.89455      3.35770     15.88292        -0.528754      0.305535     -0.449501
     12.18114     12.47056     15.28043        -0.045398      0.618341     -0.483119
     13.46955     10.88096     14.59667         0.875632     -0.048217     -0.563720
     16.35228      3.94131     10.23836        -0.184713      0.129081      0.695089
     10.87137      6.10293     12.55429         0.438768      0.352011      0.348337
      5.31477      1.53304     10.37446         0.196968      0.187661     -0.159326
      3.10598      2.26922      9.98671         0.327300      0.035980     -0.256221
     14.65710     11.22585     12.52533        -0.041678     -0.113166     -0.514497
     12.80977     11.31066     11.26711         0.967921      0.204308     -0.237934
      7.51419      9.76048     14.57577        -0.519551     -0.109762      0.214305
     20.66872     11.57920     15.56323         0.051172      0.055449     -0.417410
     14.37710      0.83216     13.06145        -0.038669      0.055826      0.416260
     11.63748      2.61083     11.25355         0.540276     -0.276810     -0.432097
      7.50766      8.18725     14.25909        -0.408131     -0.014232      0.121335
      5.37407      6.31846     13.42205        -0.437245      0.400118     -0.081300
      3.10888      1.00751     10.84443         0.329677     -0.247461     -0.158292
     19.78934     10.22450     11.72853        -0.404131     -0.491915      0.396469
     17.67319      7.51361     10.12987         0.694763     -0.021639     -0.337228
      4.39185      6.97634      9.85364        -0.858399     -0.069620      0.399591
      5.09638      7.08358     14.77376        -0.704087     -0.219384      0.384207
     17.77727      9.26330     13.79888         0.066738      0.201068     -0.239738
     17.52942      6.54423     15.15653         0.684970      0.261376      0.380754
     13.31667      2.59912     14.57276         0.191632      0.067029      0.734245
     12.41830      3.16382     15.80024         1.895110     -0.224506     -0.854237
      3.57834      0.64077     15.48279         1.483579      0.106673     -0.837098
      3.36273      0.44840     12.89075         1.902767      1.276931      1.290533
     13.72564     12.58718     11.01362        -0.142119      0.963216     -0.206030
      6.92490      1.71631     10.10490         0.940289      0.486372     -1.294097
     14.58464      4.69120     11.87321        -0.137871      0.580961      1.405160
     14.08712      3.77466     10.79920        -0.570390     -0.321534     -0.254700
     16.65116     10.27135     10.04705        -0.595489      2.449260      1.436586
     15.49226     11.35322     10.45775         0.426921     -0.527121      0.180876
     11.10876      8.14355     13.66618         0.067439     -1.935202     -0.898977
      9.91265      9.10261     14.17868         0.733426     -0.688335     -0.094468
      6.51153      2.85374     14.99572        -0.674138      0.440058     -0.495831
      7.86587      2.40850     15.20995         1.493393     -1.388277     -0.520530
     14.65534      6.46343      8.66791        -0.127661      0.637554      0.012004
     14.67291      6.07096     10.11423        -0.202515      0.604628      0.076707
     15.45881      3.22169     16.00624         1.508215     -0.283434     -0.388472
     16.60606      3.74285     15.11088         0.392091      1.108615     -1.158393
      7.43272     11.90814     15.39321        -1.083545     -0.724098      0.317801
     11.37756      0.12941     14.24887        -0.206883      0.649145     -0.115025
     16.84347      8.50916      8.47472        -0.073960      0.375135      0.625984
     15.95882      8.08805      9.68896         0.169120      0.584790     -0.303214
      6.43703     10.63827     11.70435         1.617042     -0.555028     -0.180982
      3.98288      5.72334     11.58709         0.395107     -0.140565     -0.325009
     16.01918      5.57663     13.58579         1.092021     -0.488766      0.068112
     17.59392      5.20035     13.24941         0.750437      0.243650     -0.944550
     15.76154     10.44575     13.40995         0.624941     -0.369397     -0.086253
      8.42347      0.11115     14.19878         0.473979      0.299631      0.643479
      1.49378      1.40235     15.17694         0.029604     -0.731707      0.090691
      1.84067      0.14238     14.25022        -0.173417      0.256741      0.208968
     13.22485      5.76117     13.36795         1.181963     -0.418432     -0.155291
     14.05964      4.56555     13.97122        -0.352531     -1.161753      1.109684
     10.38054     10.30268     11.04905        -1.134521     -0.397010      0.053292
     11.14277     10.00108     12.43674        -0.399920     -0.403590     -0.170215
      4.72753      4.50858     12.45958        -0.062482     -0.367103     -0.585457
     12.69063      2.06768     10.06089        -0.940943      0.998521      1.662449
     10.38343     11.96971     12.29547         0.072196     -0.498444     -0.423650
      8.63894      1.08437     17.56590        -0.275791      0.001093      0.742616
      8.18240      9.48513     12.20234         0.515834     -0.166563     -1.134322
 -----------------------------------------------------------------------------------
    total drift:                                0.099369     -0.056206      0.245728


--------------------------------------------------------------------------------------------------------



  FREE ENERGIE OF THE ION-ELECTRON SYSTEM (eV)
  ---------------------------------------------------
  free  energy   TOTEN  =     -1310.45549742 eV

  energy  without entropy=    -1310.40122390  energy(sigma->0) =    -1310.43740625
 


--------------------------------------------------------------------------------------------------------


    --------------------------------------------
      INIT:  cpu time      0.0804: real time      0.0101
  FINALIZE:  cpu time     12.0508: real time      1.6802
    --------------------------------------------
    POTLOK:  cpu time     13.7535: real time      1.9056


--------------------------------------------------------------------------------------------------------


     LOOP+:  cpu time   1487.2728: real time    203.0693
    --------------------------------------------
      INIT:  cpu time      0.0867: real time      0.0110
  FINALIZE:  cpu time    743.7544: real time    183.6352
    --------------------------------------------
 vacuum level on the upper side and lower side of the slab         0.007         0.610
    4ORBIT:  cpu time      0.0000: real time      0.0000



 total charge

# of ion       s       p       d       tot
------------------------------------------
    1        0.587   0.868   8.318   9.772
    2        1.585   3.519   0.000   5.104
    3        1.564   3.639   0.000   5.204
    4        1.561   3.624   0.000   5.184
    5        1.569   3.589   0.000   5.158
    6        1.564   3.670   0.000   5.234
    7        1.563   3.599   0.000   5.162
    8        1.563   3.614   0.000   5.177
    9        1.565   3.639   0.000   5.203
   10        1.566   3.651   0.000   5.217
   11        1.567   3.600   0.000   5.167
   12        1.558   3.629   0.000   5.187
   13        1.564   3.643   0.000   5.207
   14        1.568   3.667   0.000   5.235
   15        1.567   3.640   0.000   5.207
   16        1.563   3.640   0.000   5.204
   17        1.564   3.678   0.000   5.242
   18        1.573   3.670   0.000   5.243
   19        1.565   3.633   0.000   5.198
   20        1.561   3.658   0.000   5.220
   21        1.557   3.665   0.000   5.221
   22        1.554   3.605   0.000   5.159
   23        1.566   3.663   0.000   5.228
   24        1.574   3.668   0.000   5.242
   25        1.559   3.648   0.000   5.207
   26        1.572   3.628   0.000   5.200
   27        1.565   3.612   0.000   5.176
   28        1.558   3.584   0.000   5.143
   29        1.561   3.589   0.000   5.150
   30        1.560   3.680   0.000   5.239
   31        1.565   3.681   0.000   5.246
   32        1.561   3.566   0.000   5.127
   33        1.560   3.667   0.000   5.227
   34        1.570   3.672   0.000   5.242
   35        1.569   3.614   0.000   5.183
   36        1.566   3.625   0.000   5.191
   37        1.558   3.619   0.000   5.177
   38        1.568   3.631   0.000   5.200
   39        1.567   3.679   0.000   5.246
   40        1.559   3.656   0.000   5.215
   41        1.560   3.670   0.000   5.230
   42        1.562   3.612   0.000   5.174
   43        1.562   3.647   0.000   5.209
   44        1.560   3.672   0.000   5.232
   45        1.558   3.679   0.000   5.237
   46        1.561   3.700   0.000   5.261
   47        1.598   3.548   0.000   5.146
   48        1.236   2.633   0.000   3.869
   49        0.878   1.620   0.000   2.498
   50        0.879   1.676   0.000   2.554
   51        0.887   1.709   0.000   2.596
   52        0.888   1.549   0.000   2.437
   53        0.866   1.769   0.000   2.636
   54        0.865   1.755   0.000   2.620
   55        0.872   1.779   0.000   2.651
   56        0.876   1.816   0.000   2.692
   57        0.878   1.811   0.000   2.690
   58        0.870   1.766   0.000   2.636
   59        0.872   1.785   0.000   2.657
   60        0.882   1.828   0.000   2.710
   61        0.871   1.791   0.000   2.662
   62        0.866   1.754   0.000   2.620
   63        0.866   1.751   0.000   2.617
   64        0.863   1.753   0.000   2.616
   65        0.865   1.749   0.000   2.614
   66        0.870   1.780   0.000   2.650
   67        0.880   1.817   0.000   2.698
   68        0.880   1.822   0.000   2.702
   69        0.872   1.766   0.000   2.638
   70        0.879   1.772   0.000   2.651
   71        0.880   1.792   0.000   2.672
   72        0.863   1.743   0.000   2.606
   73        0.863   1.770   0.000   2.633
   74        0.868   1.764   0.000   2.632
   75        0.866   1.764   0.000   2.630
   76        0.862   1.738   0.000   2.601
   77        0.868   1.761   0.000   2.629
   78        0.866   1.747   0.000   2.613
   79        0.866   1.752   0.000   2.618
   80        0.859   1.726   0.000   2.584
   81        0.868   1.777   0.000   2.646
   82        0.867   1.758   0.000   2.625
   83        0.863   1.742   0.000   2.605
   84        0.870   1.780   0.000   2.650
   85        0.868   1.767   0.000   2.635
   86        0.871   1.766   0.000   2.638
   87        0.880   1.809   0.000   2.690
   88        0.877   1.776   0.000   2.653
   89        0.870   1.735   0.000   2.605
   90        0.879   1.800   0.000   2.678
   91        0.879   1.814   0.000   2.692
   92        0.867   1.772   0.000   2.639
   93        0.864   1.743   0.000   2.607
   94        0.859   1.721   0.000   2.580
   95        0.866   1.756   0.000   2.621
   96        0.863   1.747   0.000   2.610
   97        0.866   1.744   0.000   2.610
   98        0.866   1.762   0.000   2.629
   99        0.877   1.794   0.000   2.671
  100        0.873   1.788   0.000   2.661
  101        0.872   1.790   0.000   2.662
  102        0.884   1.835   0.000   2.719
  103        0.870   1.787   0.000   2.658
  104        0.876   1.807   0.000   2.683
  105        0.872   1.789   0.000   2.661
  106        0.871   1.782   0.000   2.652
  107        0.868   1.768   0.000   2.636
  108        0.871   1.781   0.000   2.651
  109        0.866   1.764   0.000   2.630
  110        0.866   1.766   0.000   2.632
  111        0.872   1.775   0.000   2.648
  112        0.874   1.793   0.000   2.667
  113        0.883   1.838   0.000   2.721
  114        0.875   1.796   0.000   2.671
  115        0.868   1.777   0.000   2.645
  116        0.870   1.782   0.000   2.653
  117        0.868   1.766   0.000   2.634
  118        0.868   1.771   0.000   2.639
  119        0.649   0.140   0.000   0.789
  120        0.542   0.096   0.000   0.638
  121        0.588   0.107   0.000   0.695
  122        0.623   0.149   0.000   0.772
  123        0.607   0.137   0.000   0.744
  124        0.665   0.148   0.000   0.813
  125        0.582   0.113   0.000   0.695
  126        0.630   0.122   0.000   0.752
  127        0.541   0.095   0.000   0.636
  128        0.569   0.105   0.000   0.674
  129        0.556   0.096   0.000   0.651
  130        0.566   0.099   0.000   0.666
  131        0.583   0.128   0.000   0.711
  132        0.627   0.141   0.000   0.768
  133        0.600   0.126   0.000   0.726
  134        0.592   0.109   0.000   0.701
  135        0.682   0.164   0.000   0.846
  136        0.606   0.131   0.000   0.736
  137        0.569   0.098   0.000   0.667
  138        0.599   0.123   0.000   0.723
  139        0.574   0.108   0.000   0.682
  140        0.619   0.128   0.000   0.746
  141        0.604   0.125   0.000   0.729
  142        0.653   0.139   0.000   0.792
  143        0.616   0.136   0.000   0.752
  144        0.652   0.147   0.000   0.799
  145        0.624   0.136   0.000   0.760
  146        0.584   0.112   0.000   0.696
  147        0.641   0.131   0.000   0.773
  148        0.565   0.109   0.000   0.673
  149        0.617   0.135   0.000   0.752
  150        0.607   0.133   0.000   0.740
  151        0.565   0.111   0.000   0.676
  152        0.558   0.116   0.000   0.674
  153        0.580   0.122   0.000   0.701
  154        0.594   0.136   0.000   0.730
  155        0.573   0.107   0.000   0.680
  156        0.592   0.124   0.000   0.717
  157        0.608   0.120   0.000   0.729
  158        0.623   0.117   0.000   0.740
  159        0.579   0.112   0.000   0.691
  160        0.621   0.129   0.000   0.749
  161        0.572   0.120   0.000   0.692
  162        0.606   0.120   0.000   0.726
  163        0.601   0.134   0.000   0.735
  164        0.576   0.124   0.000   0.700
  165        0.588   0.107   0.000   0.694
  166        0.618   0.131   0.000   0.748
  167        0.605   0.121   0.000   0.726
  168        0.573   0.106   0.000   0.680
  169        0.582   0.112   0.000   0.694
  170        0.532   0.089   0.000   0.621
  171        0.565   0.093   0.000   0.658
  172        0.669   0.156   0.000   0.825
  173        0.605   0.139   0.000   0.744
  174        0.651   0.147   0.000   0.798
  175        0.621   0.148   0.000   0.769
  176        0.610   0.130   0.000   0.740
  177        0.499   0.076   0.000   0.575
  178        0.599   0.115   0.000   0.714
  179        0.633   0.156   0.000   0.789
  180        0.577   0.108   0.000   0.685
  181        0.626   0.132   0.000   0.758
  182        0.657   0.152   0.000   0.809
  183        0.603   0.115   0.000   0.719
  184        0.570   0.105   0.000   0.675
  185        0.563   0.093   0.000   0.657
  186        0.633   0.145   0.000   0.778
  187        0.564   0.099   0.000   0.662
  188        0.638   0.132   0.000   0.769
  189        0.595   0.118   0.000   0.714
  190        0.572   0.109   0.000   0.681
  191        0.660   0.147   0.000   0.807
  192        0.577   0.126   0.000   0.703
  193        0.573   0.107   0.000   0.680
  194        0.617   0.145   0.000   0.762
  195        0.627   0.135   0.000   0.761
  196        0.580   0.104   0.000   0.684
  197        0.562   0.107   0.000   0.669
  198        0.601   0.117   0.000   0.717
  199        0.545   0.097   0.000   0.642
  200        0.643   0.143   0.000   0.786
  201        0.625   0.138   0.000   0.764
  202        0.598   0.121   0.000   0.719
  203        0.611   0.125   0.000   0.736
  204        0.545   0.090   0.000   0.635
  205        0.617   0.129   0.000   0.746
  206        0.631   0.125   0.000   0.756
  207        0.563   0.101   0.000   0.664
--------------------------------------------------
tot        188.077 305.325   8.318 501.720
 

 total amount of memory used by VASP MPI-rank0   576633. kBytes
=======================================================================

   base      :      30000. kBytes
   nonlr-proj:      22051. kBytes
   fftplans  :      29182. kBytes
   grid      :     111310. kBytes
   one-center:       3219. kBytes
   wavefun   :     380871. kBytes
 
  
  
 General timing and accounting informations for this job:
 ========================================================
  
                  Total CPU time used (sec):     2634.889
                            User time (sec):     2333.433
                          System time (sec):      301.456
                         Elapsed time (sec):      509.454
  
                   Maximum memory used (kb):     1750364.
                   Average memory used (kb):          N/A
  
                          Minor page faults:       709600
                          Major page faults:           60
                 Voluntary context switches:         2702
